[Molden Format]
[Atoms] (AU)
O 0 8 0.0 -0.2559549278198 0.0
H 1 1 1.638036840407 1.0238197112792 -0.0
H 2 1 -1.638036840407 1.0238197112792 -0.0
[GTO]
0 0
s  3  1.00
  130.7093214  0.1543289673
  23.80886605  0.5353281423
  6.443608313  0.4446345422
s  3  1.00
  5.033151319  -0.09996722919
  1.169596125  0.3995128261
  0.38038896  0.7001154689
p  3  1.00
  5.033151319  0.155916275
  1.169596125  0.6076837186
  0.38038896  0.3919573931

1 0
s  3  1.00
  3.425250914  0.1543289673
  0.6239137298  0.5353281423
  0.168855404  0.4446345422

2 0
s  3  1.00
  3.425250914  0.1543289673
  0.6239137298  0.5353281423
  0.168855404  0.4446345422

[MO]
 Sym= A
 Ene= -20.26289141701488
 Spin= Alpha
 Occup= 2.109747305256216
   1  -0.990005995905207
   2  -0.14060161503458415
   3  1.1826274059254612e-17
   4  -0.002140635232720367
   5  -1.145805331610808e-31
   6  -0.007574021461744826
   7  -0.007574021461744829
 Sym= A
 Ene= -1.2096973772409
 Spin= Alpha
 Occup= 2.0302217138992256
   1  -0.12883281861328377
   2  0.8701943352715507
   3  3.9724852393240433e-16
   4  0.0964597153108552
   5  1.8835869269321923e-31
   6  0.3292866889441554
   7  0.32928668894415525
 Sym= A
 Ene= -0.5479646686000444
 Spin= Alpha
 Occup= 0.7375897854095449
   1  -1.224869133438651e-16
   2  8.583551514143231e-16
   3  -0.7252448800645527
   4  -5.212220269399722e-16
   5  -1.0738649197059093e-15
   6  -0.486836658408215
   7  0.4868366584082139
 Sym= A
 Ene= -0.43652721700964453
 Spin= Alpha
 Occup= 1.1320836936017984
   1  -0.04061808619171097
   2  0.33394103098190003
   3  5.3952871216405e-16
   4  -0.8185015490068348
   5  2.9921627406989558e-30
   6  -0.329308953092897
   7  -0.3293089530928985
 Sym= A
 Ene= -0.3875867432164958
 Spin= Alpha
 Occup= 2.0
   1  -1.039799963969844e-31
   2  -2.020424196781642e-31
   3  -5.230959976540416e-16
   4  2.186891965479921e-30
   5  1.0000000000000002
   6  -8.101082781908771e-16
   7  8.101082781908773e-16
 Sym= A
 Ene= 0.47761872081729756
 Spin= Alpha
 Occup= 0.6690533613278824
   1  -0.04050190111610052
   2  0.3338808058839509
   3  3.4997518452643155e-15
   4  0.5663445552632791
   5  -5.35370732022885e-31
   6  -0.5320418443092181
   7  -0.532041844309214
 Sym= A
 Ene= 0.5881392667381337
 Spin= Alpha
 Occup= 0.6690533613278822
   1  -1.990396960322326e-16
   2  1.554178158171238e-15
   3  -0.6884910049812949
   4  2.925968390142765e-15
   5  1.160337583868411e-16
   6  0.5128255727144672
   7  -0.5128255727144718
