[Molden Format]
[Atoms] (AU)
C 0 6 -0.5511162196534166 0.0 -2.159078406742125
C 1 6 -0.5511162196534166 0.0 0.686033724485875
O 2 8 1.3479997420905834 0.0 1.9799841204908755
H 3 1 -2.4451645281594168 0.0 1.588610265473875
H 4 1 1.3913846003065835 0.0 -2.860224388713125
H 5 1 -1.5584116865154165 -1.669971842687 -2.864995373575125
H 6 1 -1.5584116865154165 1.669971842687 -2.864995373575125
[GTO]
0 0
s  3  1.00
  71.61683735  0.1543289673
  13.04509632  0.5353281423
  3.53051216  0.4446345422
s  3  1.00
  2.941249355  -0.09996722919
  0.6834830964  0.3995128261
  0.2222899159  0.7001154689
p  3  1.00
  2.941249355  0.155916275
  0.6834830964  0.6076837186
  0.2222899159  0.3919573931

1 0
s  3  1.00
  71.61683735  0.1543289673
  13.04509632  0.5353281423
  3.53051216  0.4446345422
s  3  1.00
  2.941249355  -0.09996722919
  0.6834830964  0.3995128261
  0.2222899159  0.7001154689
p  3  1.00
  2.941249355  0.155916275
  0.6834830964  0.6076837186
  0.2222899159  0.3919573931

2 0
s  3  1.00
  130.7093214  0.1543289673
  23.80886605  0.5353281423
  6.443608313  0.4446345422
s  3  1.00
  5.033151319  -0.09996722919
  1.169596125  0.3995128261
  0.38038896  0.7001154689
p  3  1.00
  5.033151319  0.155916275
  1.169596125  0.6076837186
  0.38038896  0.3919573931

3 0
s  3  1.00
  3.425250914  0.1543289673
  0.6239137298  0.5353281423
  0.168855404  0.4446345422

4 0
s  3  1.00
  3.425250914  0.1543289673
  0.6239137298  0.5353281423
  0.168855404  0.4446345422

5 0
s  3  1.00
  3.425250914  0.1543289673
  0.6239137298  0.5353281423
  0.168855404  0.4446345422

6 0
s  3  1.00
  3.425250914  0.1543289673
  0.6239137298  0.5353281423
  0.168855404  0.4446345422

[MO]
 Sym= A
 Ene= -20.28812366577379
 Spin= Alpha
 Occup= 2.066692597052296
   1  -6.372725011305487e-05
   2  -0.00022124283016940075
   3  0.0001332555112716997
   4  -1.1076201392757706e-16
   5  -0.00031303684253981004
   6  0.0009216351256304389
   7  -0.006708329558800274
   8  -0.015045627360836557
   9  3.669167462431641e-17
   10  -0.010226077777772444
   11  -0.9899260479593611
   12  -0.14022277427809762
   13  0.002022248349278929
   14  -6.468067835826681e-19
   15  0.001394788878260848
   16  -0.0009886767985190373
   17  1.532594310598789e-05
   18  -9.241048533796622e-05
   19  -9.241048533803757e-05
 Sym= A
 Ene= -11.121276565061272
 Spin= Alpha
 Occup= 0.8376645942209907
   1  -0.0025459180681159884
   2  0.004247167928663359
   3  -8.460151701246921e-05
   4  -2.4219432905617566e-16
   5  0.013976538266565003
   6  0.988179426298106
   7  0.14983844549733394
   8  0.0001633124914834617
   9  5.1809261752720096e-17
   10  -0.0002587369254475701
   11  -0.0011376178238104717
   12  0.006803737843326709
   13  -0.019392306450371908
   14  1.1061963225219764e-16
   15  -0.013192955364077398
   16  0.015231032977717149
   17  0.0002879398806556054
   18  0.0002542087367974383
   19  0.00025420873679751885
 Sym= A
 Ene= -11.056554144995575
 Spin= Alpha
 Occup= 0.6648347260051034
   1  0.9879566732715925
   2  0.15154226272230897
   3  -9.152896650896274e-05
   4  4.90461177761907e-17
   5  0.0005285757956108119
   6  0.0012335842898639783
   7  0.004262930929414651
   8  -1.7278984932655816e-05
   9  4.2009058200780614e-18
   10  -0.013964953397698219
   11  6.186515546460695e-05
   12  -0.00031404366649532216
   13  -6.054631725619694e-05
   14  8.893562084032214e-19
   15  0.0009151098394553343
   16  0.00021609758782299116
   17  0.016133404025406244
   18  0.015815737079320335
   19  0.01581573707932034
 Sym= A
 Ene= -1.3283678987960477
 Spin= Alpha
 Occup= 0.6563593262108112
   1  -0.01371697234939531
   2  0.08800662253509338
   3  0.01571534494781301
   4  2.2366186390012617e-17
   5  0.08034627775411529
   6  -0.07947081360800155
   7  0.43380304758323424
   8  0.2877750792265674
   9  -5.81769812514687e-17
   10  0.1844543526405187
   11  -0.11983591305936322
   12  0.7756385837855357
   13  -0.17177297365726343
   14  -7.290969159603279e-17
   15  -0.11951428079765707
   16  0.10883348951705797
   17  0.03587673741606974
   18  0.023751196459622745
   19  0.0237511964596228
 Sym= A
 Ene= -0.9634564995912895
 Spin= Alpha
 Occup= 0.6416094352437449
   1  0.12024256797765016
   2  -0.6491000224243807
   3  0.020436806716088787
   4  7.820739802944622e-17
   5  -0.07660528915411453
   6  0.05189571148239371
   7  -0.2984173902291577
   8  0.1258266041439582
   9  1.7674196877273643e-16
   10  0.3132967018892105
   11  -0.030658505910069054
   12  0.19826924379949204
   13  0.024483021208257714
   14  9.030599374709765e-17
   15  0.06819437574953605
   16  -0.14020529916974656
   17  -0.2987633647156102
   18  -0.3144630254170468
   19  -0.314463025417047
 Sym= A
 Ene= -0.7425214380592574
 Spin= Alpha
 Occup= 2.072142655417947
   1  0.04022643460459075
   2  -0.2088321145699964
   3  -0.10059297906502288
   4  -2.506946536522396e-15
   5  0.3036433080466322
   6  -0.08421584407005882
   7  0.4589949715398153
   8  -0.35623529199551746
   9  -9.197234685708783e-16
   10  0.10422572066033059
   11  0.03855015854680714
   12  -0.27217375376493497
   13  -0.2840768197888444
   14  -4.979021337803416e-16
   15  -0.03603337136564114
   16  0.4811175602589178
   17  -0.24515357449922898
   18  -0.1545645614103404
   19  -0.15456456141034314
 Sym= A
 Ene= -0.6106019816745706
 Spin= Alpha
 Occup= 0.8682399270907394
   1  0.010029173248092698
   2  -0.05767034965725715
   3  0.34684804065819763
   4  -9.94153565356382e-15
   5  0.3678071620297325
   6  -0.02616340328054858
   7  0.12844931945901797
   8  0.3523418119317299
   9  -4.213652447648199e-15
   10  -0.3523358397019298
   11  0.02377677855499806
   12  -0.1896566610646644
   13  -0.0006185178227429134
   14  -2.6702733431682773e-15
   15  -0.4961846619520238
   16  -0.23138513451544201
   17  0.10486540002422183
   18  -0.2532275743167614
   19  -0.25322757431677345
 Sym= A
 Ene= -0.5594998809886695
 Spin= Alpha
 Occup= 0.5804460845353309
   1  -1.1226214626102604e-16
   2  5.97697711621314e-16
   3  -1.5665052415558614e-14
   4  -0.6793570365054298
   5  1.7070615300910228e-15
   6  5.968448856656586e-16
   7  -2.689422051424157e-15
   8  -5.616583751170091e-15
   9  -0.3374217561073423
   10  -5.181263874184175e-15
   11  -9.213097373634723e-16
   12  8.97702398870884e-15
   13  1.4513061614517856e-14
   14  -0.22150958921386696
   15  5.241773132560606e-15
   16  4.370722611562004e-16
   17  -1.1674950572057093e-14
   18  0.43333248051716056
   19  -0.43333248051714923
 Sym= A
 Ene= -0.5440592764267197
 Spin= Alpha
 Occup= 0.7282515226631531
   1  -0.0030024015495526933
   2  0.023849480731920104
   3  0.4092463188587554
   4  -1.663569788443455e-14
   5  -0.3628045128020686
   6  -0.002729560222719749
   7  -0.012304725751345672
   8  0.09876146351391048
   9  -8.811111871358093e-15
   10  0.41552569148968327
   11  0.027436857478399385
   12  -0.24087067656058958
   13  -0.5291097132272403
   14  -6.0476668196168626e-15
   15  -0.01175254774486818
   16  0.051577228039430295
   17  0.41529390262133575
   18  -0.0432569596417921
   19  -0.04325695964181325
 Sym= A
 Ene= -0.49914893078410566
 Spin= Alpha
 Occup= 0.605808054640973
   1  0.001615335352250782
   2  -0.007366840893478903
   3  -0.47687263257643925
   4  1.2588996607911327e-15
   5  -0.1058503651750424
   6  -0.0038727295550381024
   7  -0.0153738806074616
   8  0.31978878660853405
   9  1.0563096064246032e-15
   10  0.0939295535678869
   11  0.023875504903156246
   12  -0.21738472960254454
   13  -0.4071367312436149
   14  8.787823156894046e-16
   15  -0.36831851699039125
   16  -0.24161994882865476
   17  -0.37189585872713954
   18  0.22810150353610972
   19  0.2281015035361111
 Sym= A
 Ene= -0.4124318089695778
 Spin= Alpha
 Occup= 2.110608249544892
   1  7.108459379540703e-18
   2  -4.624328461928726e-17
   3  -7.370046898217078e-16
   4  0.24718062504423122
   5  1.003254521462783e-15
   6  1.4527293794447057e-16
   7  -1.811439518743222e-18
   8  3.184082830345868e-16
   9  -0.5819355404337073
   10  -6.097532488425257e-16
   11  -5.5085397855236214e-17
   12  -1.0863128152421092e-16
   13  -3.5802956377625635e-16
   14  -0.7126334478686088
   15  5.682207776937063e-17
   16  -4.492604251508053e-16
   17  -6.704876304503465e-16
   18  -0.21494922000529634
   19  0.21494922000529587
 Sym= A
 Ene= -0.33703599235090376
 Spin= Alpha
 Occup= 2.052482643381694
   1  -0.01606964457020371
   2  0.10142836098240468
   3  0.004100039818517707
   4  -1.4659413209218562e-15
   5  0.3515347185841583
   6  -0.001540671378077971
   7  0.009168577766902941
   8  0.12181616255074587
   9  -2.8430891967286547e-16
   10  -0.19552001734681854
   11  -0.00047531409980216215
   12  0.005783333007518772
   13  -0.46311754987913195
   14  3.514746885881339e-16
   15  0.6830813470959953
   16  -0.3456566717721245
   17  -0.07254575296239435
   18  -0.05853976705043416
   19  -0.05853976705043683
 Sym= A
 Ene= 0.2918253660443159
 Spin= Alpha
 Occup= 1.306772977672408
   1  -3.066154423917926e-17
   2  3.1862783252973523e-16
   3  -5.411749424253649e-17
   4  -0.04701671257735938
   5  6.509714473041955e-17
   6  -1.2420317964369925e-17
   7  -3.250487068381807e-16
   8  -3.097781413783911e-16
   9  -0.7194365427670991
   10  3.387459090568607e-16
   11  -5.819584286634351e-17
   12  1.8848864083007273e-16
   13  -3.828214951249504e-19
   14  0.6605422592927398
   15  -3.716813144565362e-16
   16  -1.2145341316547752e-16
   17  8.173296496035326e-17
   18  -0.14812902038119394
   19  0.14812902038119344
 Sym= A
 Ene= 0.6236468634195966
 Spin= Alpha
 Occup= 0.9449393033123109
   1  -0.01256858754520251
   2  0.08380666889540839
   3  0.3204408742220476
   4  6.4304644290640015e-15
   5  0.3304444687064552
   6  0.05550587909097107
   7  -0.4581469039550799
   8  0.3376007811553727
   9  -1.7085908444478248e-15
   10  0.0528360886755675
   11  -0.001989124746299057
   12  -0.008821778452998941
   13  -0.04514471851000747
   14  9.270961372443678e-16
   15  0.027889438397729033
   16  0.5450960505874668
   17  -0.26599863118956085
   18  0.20051748206548864
   19  0.20051748206547906
 Sym= A
 Ene= 0.6650193605072311
 Spin= Alpha
 Occup= 1.6221325095719037
   1  -0.013709258072365392
   2  0.09419269326046047
   3  -0.4633076653893681
   4  -4.1014554238257113e-16
   5  0.4441703931701297
   6  0.048224754560215036
   7  -0.40581173867009385
   8  -0.13819966531192537
   9  5.762858492492079e-16
   10  0.21512643572869383
   11  -0.01265556775221914
   12  0.10275856953399502
   13  -0.13384986811612865
   14  -4.662464703922863e-16
   15  -0.1864169852100636
   16  0.04614998418688383
   17  0.49649799861569494
   18  -0.131499974369458
   19  -0.13149997436945865
 Sym= A
 Ene= 0.6974210355808661
 Spin= Alpha
 Occup= 0.6479284166902419
   1  2.110717055805461e-15
   2  -1.7376854342624716e-14
   3  8.819004721738365e-16
   4  0.6893222644683116
   5  6.088080285027753e-15
   6  -9.045655471251822e-16
   7  8.753673813123579e-15
   8  -5.6615317520297044e-15
   9  -0.17294116403242274
   10  2.8026151642048758e-15
   11  1.2501404787221213e-16
   12  -1.2305860076058903e-15
   13  2.7844394644737943e-15
   14  0.08228605321465594
   15  -1.939657869092553e-17
   16  -1.0724156962834005e-14
   17  1.1011553626812722e-14
   18  0.4940420907866884
   19  -0.4940420907866669
 Sym= A
 Ene= 0.7173182302323275
 Spin= Alpha
 Occup= 0.5991132168895146
   1  -0.06984880010993395
   2  0.5719361695990345
   3  -0.12146340399047979
   4  1.9989995599271117e-14
   5  -0.31816475990943105
   6  0.019721653232107558
   7  -0.15221756524030722
   8  0.05837006107379125
   9  -4.72302630699552e-15
   10  -0.11482813729469483
   11  -0.0060827986023491805
   12  0.04977145015064448
   13  -0.0889665900960695
   14  2.3347898808949823e-15
   15  -0.03313216627181472
   16  0.19089434273146433
   17  -0.29419009298916904
   18  -0.4343735955189873
   19  -0.43437359551901633
 Sym= A
 Ene= 0.7712448265951278
 Spin= Alpha
 Occup= 0.6081920319967711
   1  0.0449216459999953
   2  -0.3761100838536084
   3  -0.2735574743615533
   4  1.584293173220915e-16
   5  -0.285579221165589
   6  0.002247521459282426
   7  -0.03365451489881251
   8  0.2681041857348436
   9  -4.2893721726189376e-16
   10  -0.5751713387266916
   11  -0.004545211266805596
   12  0.043702315449417564
   13  -0.17165383978799154
   14  3.581229449846147e-16
   15  0.10784925112612517
   16  0.39503209802676614
   17  0.31140462935503427
   18  -0.011050147464659075
   19  -0.011050147464659373
 Sym= A
 Ene= 0.9744874045094604
 Spin= Alpha
 Occup= 0.6081920319967709
   1  -0.0075740102274078494
   2  0.07501833258589725
   3  -0.25900300448394764
   4  7.846742651174669e-16
   5  0.06577046139265823
   6  -0.02980094669172149
   7  0.271505506109016
   8  0.561124059681241
   9  -8.964778069761226e-17
   10  0.346016646895691
   11  0.033885917447448184
   12  -0.33012814123920564
   13  0.4138662237336764
   14  2.6771462552533095e-16
   15  0.28763920215020233
   16  0.1047953768298301
   17  0.14584678449633337
   18  -0.09302619339452121
   19  -0.09302619339452177
