[Molden Format]
[Atoms] (AU)
O 0 8 0.0 -0.2559549278198 0.0
H 1 1 1.638036840407 1.0238197112792 -0.0
H 2 1 -1.638036840407 1.0238197112792 -0.0
[GTO]
0 0
s  3  1.00
  130.7093214  0.1543289673
  23.80886605  0.5353281423
  6.443608313  0.4446345422
s  3  1.00
  5.033151319  -0.09996722919
  1.169596125  0.3995128261
  0.38038896  0.7001154689
p  3  1.00
  5.033151319  0.155916275
  1.169596125  0.6076837186
  0.38038896  0.3919573931

1 0
s  3  1.00
  3.425250914  0.1543289673
  0.6239137298  0.5353281423
  0.168855404  0.4446345422

2 0
s  3  1.00
  3.425250914  0.1543289673
  0.6239137298  0.5353281423
  0.168855404  0.4446345422

[MO]
 Sym= A
 Ene= -20.262891986706855
 Spin= Alpha
 Occup= 2.109747443113475
   1  -0.9900059965541622
   2  -0.1406016104045337
   3  1.7000197389370088e-17
   4  -0.002140636151991596
   5  -1.2688661082002672e-32
   6  -0.007574021894463475
   7  -0.007574021894463465
 Sym= A
 Ene= -1.2096978647773626
 Spin= Alpha
 Occup= 2.030225752680416
   1  -0.12883284645086865
   2  0.8701945952674975
   3  -2.621971453542381e-16
   4  0.0964593438248062
   5  -7.944601941953814e-32
   6  0.32928639436779833
   7  0.3292863943677979
 Sym= A
 Ene= -0.5479654519487338
 Spin= Alpha
 Occup= 0.7375936257123051
   1  3.1988205952100265e-18
   2  -9.730650533467234e-17
   3  -0.7252460641536314
   4  6.37183546705581e-16
   5  -8.37871438896798e-16
   6  -0.48683577643270326
   7  0.4868357764327035
 Sym= A
 Ene= -0.43652646162463227
 Spin= Alpha
 Occup= 1.1320775785152921
   1  -0.040618121173327255
   2  0.3339414534526975
   3  -3.670911104106819e-16
   4  -0.8185000245131464
   5  -4.087150868975471e-30
   6  -0.32931063129682625
   7  -0.3293106312968255
 Sym= A
 Ene= -0.3875872061786516
 Spin= Alpha
 Occup= 1.9999999999999991
   1  2.0094051218268685e-31
   2  -1.4795829095150137e-30
   3  4.464950429381993e-16
   4  2.6579006478342578e-30
   5  -1.0
   6  5.377642775528112e-16
   7  -5.377642775528089e-16
 Sym= A
 Ene= 0.4776192895830401
 Spin= Alpha
 Occup= 0.6690536121671482
   1  0.040501761622365524
   2  -0.33387970765649577
   3  -2.0747021505328716e-15
   4  -0.5663468217777267
   5  9.540318058553964e-31
   6  0.532040987886727
   7  0.5320409878867245
 Sym= A
 Ene= 0.5881381751674355
 Spin= Alpha
 Occup= 0.6690536121671469
   1  -8.541863684122341e-17
   2  6.352352870197954e-16
   3  -0.6884897576795654
   4  1.4560543812278173e-15
   5  -1.6952560805933712e-31
   6  0.5128264099918852
   7  -0.5128264099918884
