[Molden Format]
[Atoms] (AU)
C 0 6 -0.0 0.0 0.0
H 1 1 1.183771681898 -1.183771681898 -1.183771681898
H 2 1 1.183771681898 1.183771681898 1.183771681898
H 3 1 -1.183771681898 1.183771681898 -1.183771681898
H 4 1 -1.183771681898 -1.183771681898 1.183771681898
[GTO]
0 0
s  9  1.00
  6665.0  0.000692
  1000.0  -0.000146
  228.0  0.005329
  64.71  -0.001154
  21.06  0.027077
  7.495  -0.005725
  2.797  0.101718
  0.5215  -0.023312
  0.1596  0.27474
s  1  1.00
  0.1596  1.0
p  4  1.00
  9.439  0.038109
  2.002  0.20948
  0.5456  0.508557
  0.1517  0.468842
p  1  1.00
  0.1517  1.0
d  1  1.00
  0.55  1.0

1 0
s  4  1.00
  13.01  0.019685
  1.962  0.137977
  0.4446  0.478148
  0.122  0.50124
s  1  1.00
  0.122  1.0
p  1  1.00
  0.727  1.0

2 0
s  4  1.00
  13.01  0.019685
  1.962  0.137977
  0.4446  0.478148
  0.122  0.50124
s  1  1.00
  0.122  1.0
p  1  1.00
  0.727  1.0

3 0
s  4  1.00
  13.01  0.019685
  1.962  0.137977
  0.4446  0.478148
  0.122  0.50124
s  1  1.00
  0.122  1.0
p  1  1.00
  0.727  1.0

4 0
s  4  1.00
  13.01  0.019685
  1.962  0.137977
  0.4446  0.478148
  0.122  0.50124
s  1  1.00
  0.122  1.0
p  1  1.00
  0.727  1.0

[MO]
 Sym= A
 Ene= -11.213889368484908
 Spin= Alpha
 Occup= 2.005177704487108
   1  0.9834997413824359
   2  -0.06567227087171704
   3  0.0989503209938959
   4  2.365281953289639e-16
   5  1.287204367723574e-17
   6  -2.5493468176051235e-17
   7  6.991030895080364e-17
   8  -1.0631084438252442e-16
   9  -1.56437777612509e-16
   10  -0.0013796869277677597
   11  -1.9833141619753098e-17
   12  -3.885484060964291e-17
   13  -0.001379686927767697
   14  -1.2656332401188058e-17
   15  -0.0013796869277676244
   16  0.029558506372092494
   17  0.027694841284294374
   18  -0.03169607858965364
   19  0.03169607858965361
   20  0.03169607858965363
   21  0.029558506372092352
   22  0.027694841284294728
   23  -0.031696078589653655
   24  -0.03169607858965365
   25  -0.03169607858965374
   26  0.029558506372092338
   27  0.027694841284294527
   28  0.03169607858965375
   29  -0.031696078589653696
   30  0.03169607858965363
   31  0.02955850637209252
   32  0.02769484128429436
   33  0.03169607858965372
   34  0.03169607858965364
   35  -0.03169607858965366
 Sym= A
 Ene= -0.9441375893162284
 Spin= Alpha
 Occup= 1.0673218163260074
   1  0.070441446855098
   2  -0.4976237087292528
   3  -0.3187055395665123
   4  2.6327708307582427e-15
   5  6.102810908117817e-15
   6  6.301700335639758e-15
   7  -2.788108793254579e-17
   8  5.062893215923743e-15
   9  6.182035309377144e-15
   10  -0.2629569293346555
   11  2.2692442870640496e-15
   12  2.6445156081778574e-15
   13  -0.2629569293346539
   14  1.4017229977509975e-15
   15  -0.2629569293346549
   16  -0.26790863023275496
   17  -0.16907661866931067
   18  0.055489216320558206
   19  -0.05548921632055675
   20  -0.05548921632055647
   21  -0.2679086302327416
   22  -0.16907661866931523
   23  0.05548921632055564
   24  0.055489216320556284
   25  0.055489216320556665
   26  -0.2679086302327486
   27  -0.1690766186693265
   28  -0.05548921632055731
   29  0.05548921632055794
   30  -0.05548921632055597
   31  -0.2679086302327547
   32  -0.1690766186693265
   33  -0.05548921632055655
   34  -0.055489216320555715
   35  0.055489216320557026
 Sym= A
 Ene= -0.543811199051219
 Spin= Alpha
 Occup= 0.06304403782614174
   1  0.0
   2  -7.616487779051612e-16
   3  6.47464184828495e-15
   4  -0.18928190224158803
   5  -0.39143960446483106
   6  0.5022847241756234
   7  -0.10818963616842275
   8  -0.22373881436856793
   9  0.2870956014175948
   10  1.5363233032528008e-15
   11  0.12900715982815994
   12  -0.10053762176253367
   13  9.949128962762163e-16
   14  -0.0486152961453016
   15  -1.815403650792398e-15
   16  -0.12640136147802447
   17  -0.04706125998585785
   18  0.0022945845273919063
   19  -0.07460559514709132
   20  0.03668029434223298
   21  -0.03303440002620478
   22  -0.012299238472848412
   23  -0.016809852741231885
   24  -0.04198237964698844
   25  0.06930350984233376
   26  -0.2966826552319865
   27  -0.11045972454650278
   28  -0.08427546049612554
   29  0.011964449876426095
   30  0.001837902087442173
   31  0.45611841673621645
   32  0.16982022300518446
   33  0.06976019228228542
   34  0.04458766537652766
   35  -0.03078531341266099
 Sym= A
 Ene= -0.5438111990512098
 Spin= Alpha
 Occup= 0.803473954358791
   1  -8.31113635366399e-25
   2  3.5379814241478733e-15
   3  -1.1937374988568786e-15
   4  -0.41857505376715476
   5  0.47137881409076104
   6  0.20961747205366832
   7  -0.23924887820730814
   8  0.2694304198659734
   9  0.11981302896610115
   10  2.4648032768768255e-15
   11  0.053838298117438614
   12  0.12106926426803397
   13  2.1543714413984323e-15
   14  -0.10750710953841094
   15  2.207693566955522e-15
   16  -0.4630949705991223
   17  -0.17241770622300256
   18  0.042636298646253804
   19  -0.03606121363661308
   20  -0.06865554149477207
   21  0.1105212081119826
   22  0.04114882346273708
   23  -0.07473513694563931
   24  0.03608125756797171
   25  0.0034869297098166084
   26  0.2865301702369042
   27  0.10667979108480027
   28  0.006508196157799834
   29  6.688885184029892e-05
   30  0.08473026281325578
   31  0.06604359225024135
   32  0.0245890916754768
   33  -0.038607034457184185
   34  0.07220936005642682
   35  0.01258779160866785
 Sym= A
 Ene= -0.5438111990512073
 Spin= Alpha
 Occup= 0.803473954358798
   1  1.4065646676570386e-15
   2  -8.284699153430119e-15
   3  -1.0093301667427464e-14
   4  -0.4799060662750472
   5  -0.2567481183626518
   6  -0.38093715737587136
   7  -0.27430442155556545
   8  -0.1467519355185236
   9  -0.21773583195991236
   10  -3.771654608436185e-15
   11  -0.09784016590735917
   12  -0.06594336627607428
   13  -4.763329501205635e-15
   14  -0.12325940968255052
   15  -2.309771804516034e-15
   16  0.06645022084107557
   17  0.024740486040283675
   18  -0.07335437015433258
   19  -0.018373261685059615
   20  -0.03383718856778732
   21  -0.47068426657358325
   22  -0.17524332318461033
   23  0.03655230304207384
   24  0.06433976494078078
   25  0.04887583805805404
   26  0.2544204226394592
   27  0.09472481558378179
   28  -0.007698885768890693
   29  -0.08402874607050158
   30  0.004624649247088368
   31  0.14981362309303858
   32  0.055778021560540486
   33  -0.02910318134337222
   34  -0.0013157194446645427
   35  -0.07808837737874681
 Sym= A
 Ene= 0.19190847001179712
 Spin= Alpha
 Occup= 0.803473954358814
   1  -0.02004591529600973
   2  -0.247335531574976
   3  -0.21375239151239406
   4  2.8184971586380925e-15
   5  6.57729893286304e-14
   6  -2.6976172263353047e-14
   7  -7.159188348458588e-15
   8  2.628987719022511e-14
   9  -1.2385161554765371e-14
   10  -0.18742074401857506
   11  1.2402744492508148e-14
   12  -1.976413562471133e-14
   13  -0.18742074401857065
   14  1.4155797756685352e-15
   15  -0.18742074401856748
   16  0.12065699809562594
   17  0.3971414936856086
   18  0.0904782186370984
   19  -0.09047821863707452
   20  -0.09047821863711285
   21  0.12065699809561153
   22  0.39714149368548596
   23  0.09047821863706942
   24  0.09047821863709747
   25  0.09047821863705756
   26  0.12065699809558465
   27  0.3971414936853649
   28  -0.09047821863704147
   29  0.09047821863706672
   30  -0.09047821863705079
   31  0.1206569980956579
   32  0.3971414936856815
   33  -0.09047821863712613
   34  -0.09047821863709796
   35  0.09047821863711149
 Sym= A
 Ene= 0.27480681154808567
 Spin= Alpha
 Occup= 0.020160828563226152
   1  9.159365728004235e-15
   2  7.107467901499448e-14
   3  1.9361289733284913e-15
   4  0.18069410180268605
   5  0.22493486132347817
   6  -0.14151018408194493
   7  0.08117852278542377
   8  0.10105409962485762
   9  -0.06357477963176382
   10  3.4680913146292623e-14
   11  0.06455621047258976
   12  -0.10261411462664762
   13  4.001834429275567e-14
   14  -0.08243171007659739
   15  3.597011988924294e-14
   16  -0.03821398654630468
   17  -0.12046008876217985
   18  0.03448252736499922
   19  0.13812772593994554
   20  -0.01780830885966641
   21  -0.1037636596963306
   22  -0.32708913115258864
   23  -0.038263934464391046
   24  -0.019437841158733055
   25  -0.17537387595834336
   26  -0.0729754914437302
   27  -0.23003708775896453
   28  0.15787965091615347
   29  0.014730602388792018
   30  0.020769709422200595
   31  0.2149531376862614
   32  0.677586307673393
   33  -0.16166105801545927
   34  -0.14283496470980003
   35  0.1783352765207924
 Sym= A
 Ene= 0.2748068115480872
 Spin= Alpha
 Occup= 0.020160828563238715
   1  -3.2905127906053776e-15
   2  -2.4704655022246287e-14
   3  1.0390988297527573e-14
   4  0.04503457809402549
   5  -0.1945676352908619
   6  -0.25176676614878396
   7  0.02023220729103678
   8  -0.08741133804145826
   9  -0.113108584942854
   10  -1.4129096058799862e-14
   11  0.11485469014789865
   12  0.08876074394559762
   13  -1.622579653156749e-14
   14  -0.020544540457244388
   15  -1.9917670929126636e-14
   16  -0.19304285655929843
   17  -0.6085195955113221
   18  -0.1950734043017301
   19  0.1314415110530677
   20  0.10710114741110073
   21  0.15765762077390283
   22  0.4969764400121844
   23  0.19413096029487334
   24  0.09217128161204263
   25  0.06783091797007604
   26  -0.004779056293967111
   27  -0.015064786414618593
   28  0.024467648167916634
   29  -0.08809954141658134
   30  -0.10183239415687703
   31  0.04016429207937622
   32  0.12660794191385852
   33  -0.02541009217480585
   34  -0.1273697708576358
   35  -0.06256216471582285
 Sym= A
 Ene= 0.2748068115481181
 Spin= Alpha
 Occup= 0.020160828563239697
   1  1.035236137616047e-15
   2  -2.3996127825190965e-14
   3  -6.227409288268929e-14
   4  0.2619021015826632
   5  -0.12173301081672457
   6  0.14092390048492195
   7  0.11766197960405939
   8  -0.05468969874358359
   9  0.06331138621788834
   10  -3.6065700783502106e-14
   11  -0.06428875094286855
   12  0.055533966821774826
   13  -4.135936186132631e-14
   14  -0.11947837749399057
   15  -3.5758446119001655e-14
   16  -0.0953533243213726
   17  -0.3005776405347775
   18  0.005626816058623589
   19  0.054020360208481145
   20  0.16579067276866472
   21  -0.11043227442104292
   22  -0.3481102805866098
   23  -0.011107672690754262
   24  -0.17435872216607579
   25  -0.0625884096058916
   26  0.2060821388790879
   27  0.6496226901526058
   28  -0.11725906718903086
   29  0.17690624345613273
   30  -0.16873980410416997
   31  -0.0002965401365794442
   32  -0.0009347690309878581
   33  0.11177821055683893
   34  -0.051472838918481686
   35  0.05963927827044846
 Sym= A
 Ene= 0.5891422972059004
 Spin= Alpha
 Occup= 4.673030459062076e-05
   1  -1.151539039914168e-17
   2  4.45654021293437e-15
   3  2.4029104508467275e-15
   4  0.04094542498024745
   5  0.03682908848656517
   6  0.0764506545298642
   7  -0.27834846477195263
   8  -0.25036546193190856
   9  -0.5197142862592503
   10  1.2178819912605356e-15
   11  0.3785868867283071
   12  0.18237920966022136
   13  -1.5085966768674926e-15
   14  0.20276348272454886
   15  -9.628868890918634e-16
   16  -0.14747781556832712
   17  0.1396473156136794
   18  -0.12027103175757092
   19  -0.025476037717504688
   20  -0.09972564573711411
   21  0.314439832977234
   22  -0.2977442975275155
   23  0.016103035815778963
   24  0.023816925034626256
   25  -0.05043268298497992
   26  -0.1642628860775885
   27  0.1555411639865339
   28  -0.028234393526736148
   29  -0.11751267594833864
   30  -0.09477011232749685
   31  -0.00269913133133397
   32  0.0025558179273020864
   33  -0.07593360241504939
   34  -0.06821971319620079
   35  -0.14406307507963462
 Sym= A
 Ene= 0.5891422972059068
 Spin= Alpha
 Occup= 0.0014724386161244043
   1  -5.4121725615784e-15
   2  -2.959113076900309e-14
   3  4.0858015877283024e-14
   4  0.015457786039442424
   5  -0.08670171717252549
   6  0.03348852420933174
   7  -0.10508258285071197
   8  0.5894013770690534
   9  -0.22765618639044408
   10  -5.016983247766248e-15
   11  0.16583659354516353
   12  -0.4293505841142064
   13  -8.57843805013839e-15
   14  0.07654761268380647
   15  -7.34050769319848e-15
   16  0.14000886786782282
   17  -0.13257494006477072
   18  0.012368040455273505
   19  0.12114091662682609
   20  -0.10409193511408658
   21  -0.07697708487716891
   22  0.0728899002567927
   23  -0.051693718335013794
   24  0.13975007923384497
   25  -0.08548277250706884
   26  -0.2765640889878773
   27  0.26187960862775
   28  0.052683865172400424
   29  0.08082509190969583
   30  0.018894811000346817
   31  0.2135323059972125
   32  -0.2021945688197108
   33  -0.09200954305216406
   34  0.09943425451669066
   35  0.0002856483933502539
 Sym= A
 Ene= 0.5891422972059247
 Spin= Alpha
 Occup= 0.001472438616124422
   1  -8.962892773059613e-17
   2  1.0121610585837727e-15
   3  -2.639037308440495e-15
   4  -0.0834394462323305
   5  0.002010632788116122
   6  0.04371988485629609
   7  0.5672243424358249
   8  -0.013668353669737796
   9  -0.297209342328695
   10  4.410917599905581e-15
   11  0.21650272581241586
   12  0.009956738922389357
   13  5.2862205991064344e-15
   14  -0.41319567992820544
   15  -3.663400437168652e-16
   16  -0.26335637947195273
   17  0.24937317725566238
   18  0.07861106822968264
   19  0.07398404810480558
   20  -0.004177819941197619
   21  -0.07688232317046277
   22  0.07280017002913415
   23  0.13366465978394138
   24  -0.026466185765502873
   25  -0.10462805381150726
   26  0.0850810244107325
   27  -0.08056355203553223
   28  0.13124411958490487
   29  0.021350996749582813
   30  -0.10704859401053875
   31  0.2551576782316771
   32  -0.2416097952492576
   33  0.08103160842871968
   34  -0.07909923712072289
   35  -0.006598360140235456
 Sym= A
 Ene= 0.8916499656070781
 Spin= Alpha
 Occup= 4.6730304590674936e-05
   1  5.049887412448449e-15
   2  1.3585518892870168e-13
   3  -1.428580153791873e-13
   4  -0.1020605834946358
   5  -0.40964002793836574
   6  -0.04034082153367571
   7  0.13841402744387965
   8  0.5555516549848496
   9  0.054710010345615005
   10  -3.36743509318057e-14
   11  0.03343875981468535
   12  0.3395531866718789
   13  -1.324630535165155e-14
   14  0.08459865734701956
   15  -1.8773261398291717e-14
   16  -0.09689229080064235
   17  0.15826697256904
   18  -0.11178095680079078
   19  0.07036885494328013
   20  0.10025636340004337
   21  0.15373798047286577
   22  -0.2511205436188599
   23  0.15599613978802895
   24  0.13110363233740557
   25  0.1609911407941685
   26  0.0744232656048032
   27  -0.12156534682639772
   28  -0.08777471725299658
   29  0.046362615395499206
   30  -0.08277971624686448
   31  -0.13126895527726418
   32  0.2144189178763674
   33  0.1319899002404726
   34  0.10709739278983373
   35  -0.14351449364120966
 Sym= A
 Ene= 0.8916499656071158
 Spin= Alpha
 Occup= 0.001472438616124618
   1  6.031440573615969e-15
   2  -2.5370453022734792e-14
   3  -9.641614919940788e-15
   4  -0.04422379332081556
   5  0.052234188337911665
   6  -0.4185266332595985
   7  0.05997607629494664
   8  -0.07083973195676752
   9  0.5676036224604911
   10  4.127030974852195e-15
   11  0.3469193495214524
   12  -0.043297246103184917
   13  -2.8324078696892564e-15
   14  0.03665737946647574
   15  1.3098629876046046e-14
   16  -0.08969287650138827
   17  0.1465072185577944
   18  -0.09940824505717905
   19  0.10005652900869855
   20  0.06195769805378258
   21  0.11432463878588864
   22  -0.1867415283629313
   23  0.11856709215688654
   24  0.12637346891737505
   25  0.08827463796247201
   26  -0.14341802977842968
   27  0.23426360546649266
   28  0.14965090230612318
   29  -0.14900261835460668
   30  0.1193584481116942
   31  0.11878626749410348
   32  -0.19402929566145688
   33  -0.13049205520650248
   34  -0.12268567844601651
   35  0.09304150820311144
 Sym= A
 Ene= 0.8916499656071333
 Spin= Alpha
 Occup= 4.673030459064474e-05
   1  0.0
   2  5.226384775354384e-14
   3  -4.268485230960666e-14
   4  -0.4092390383085057
   5  0.09651597874938696
   6  0.05528808592266117
   7  0.5550078349543848
   8  -0.13089446360152426
   9  -0.07498141182604627
   10  -1.911865055783949e-14
   11  -0.045828640952190726
   12  -0.08000269972164711
   13  -3.031185761128632e-14
   14  0.3392208038543388
   15  -1.7753240809845584e-14
   16  0.15624485493226062
   17  -0.25521535269005835
   18  0.13381446639097413
   19  -0.15912324833550107
   20  -0.16245983550965434
   21  0.07169304799686406
   22  -0.11710572189966224
   23  0.043478062661877974
   24  0.08440898557534228
   25  0.08107239840120017
   26  -0.1254505044855239
   27  0.20491487390926044
   28  0.10091332594982291
   29  -0.12622210789436547
   30  0.13850766168914208
   31  -0.10248739844373381
   32  0.16740620068058001
   33  0.07637920310310835
   34  0.11731012601658133
   35  -0.10502457222178832
 Sym= A
 Ene= 0.9382022827763268
 Spin= Alpha
 Occup= 1.0803304698006386
   1  -0.02397154123095847
   2  0.30817365719054185
   3  -0.1806784419450279
   4  7.961733223728797e-14
   5  1.0111663307580217e-13
   6  -4.357979758519499e-14
   7  -1.1093167915127883e-13
   8  -1.4706896756105962e-13
   9  6.985472747088613e-14
   10  -0.09183726687720946
   11  3.91627206770199e-14
   12  -1.0339113478781311e-13
   13  -0.09183726687721272
   14  -5.861000907146381e-14
   15  -0.09183726687718767
   16  -0.2633297349194812
   17  0.19764380165252532
   18  -0.18549144759732822
   19  0.18549144759734154
   20  0.18549144759732317
   21  -0.2633297349195195
   22  0.19764380165259837
   23  -0.1854914475973606
   24  -0.18549144759735922
   25  -0.18549144759736383
   26  -0.2633297349194968
   27  0.19764380165256096
   28  0.18549144759735117
   29  -0.1854914475973465
   30  0.18549144759734704
   31  -0.26332973491940875
   32  0.19764380165239925
   33  0.1854914475972651
   34  0.18549144759727185
   35  -0.1854914475972571
 Sym= A
 Ene= 1.1322186229414928
 Spin= Alpha
 Occup= 0.09329652953758574
   1  1.1673017197760732e-14
   2  3.826285492682004e-14
   3  -8.694413810797069e-14
   4  5.43605096328824e-15
   5  -6.337456544496324e-15
   6  4.183743818762531e-15
   7  -5.452422407708069e-15
   8  8.4030005176399e-15
   9  -4.836343882757996e-15
   10  0.13457607627084678
   11  -2.385452313510558e-15
   12  5.771523591186706e-15
   13  -0.5239035736902603
   14  -5.57851625782003e-15
   15  0.38932749741940226
   16  2.0957338073950433e-14
   17  -1.2066398350123393e-14
   18  0.07527342147647195
   19  0.29303881944101406
   20  -0.2177653979645492
   21  2.2979446455577064e-14
   22  -1.2598399812671423e-14
   23  0.07527342147647083
   24  -0.29303881944101295
   25  0.21776539796455055
   26  2.578173206201253e-14
   27  -2.697971463534018e-14
   28  -0.07527342147647292
   29  -0.29303881944100846
   30  -0.21776539796455413
   31  2.4420733074820304e-14
   32  -1.3518260461693758e-14
   33  -0.07527342147647
   34  0.2930388194410109
   35  0.2177653979645495
 Sym= A
 Ene= 1.1322186229414952
 Spin= Alpha
 Occup= 0.0010664555424043922
   1  0.0
   2  3.1547000994523453e-15
   3  -1.29882821699129e-15
   4  -1.8041124150159543e-16
   5  -5.071031271984597e-15
   6  -4.281297538710938e-15
   7  -2.1909657092495566e-16
   8  8.46201360894183e-15
   9  6.01088743377671e-15
   10  0.5272542047374927
   11  2.290551397535638e-16
   12  4.458468195525095e-15
   13  -0.1470808015765577
   14  3.495263169718673e-15
   15  -0.3801734031609389
   16  -5.296916350431727e-15
   17  9.221696620842434e-15
   18  0.29491295242229437
   19  0.08226778098275722
   20  0.2126451714395451
   21  -9.446408358287417e-16
   22  -3.509092768167686e-15
   23  0.2949129524222984
   24  -0.08226778098275447
   25  -0.21264517143954048
   26  -3.5461769715444303e-16
   27  1.615885298016636e-15
   28  -0.2949129524222965
   29  -0.08226778098275703
   30  0.21264517143954342
   31  -5.040487392711588e-15
   32  6.0928101790550185e-15
   33  -0.29491295242229626
   34  0.08226778098275646
   35  -0.21264517143954406
 Sym= A
 Ene= 1.2074318641650996
 Spin= Alpha
 Occup= 0.0010664555424040971
   1  -0.09727657678573662
   2  -0.3821871803287342
   3  0.8080993450476743
   4  -2.905039466546615e-14
   5  -1.9817965992883308e-14
   6  -2.400905689371216e-14
   7  3.660565590917407e-14
   8  3.774521100693346e-14
   9  3.9006560239038256e-14
   10  0.05015746592626189
   11  -1.0825927404154353e-15
   12  8.407346955571622e-14
   13  0.050157465926190206
   14  -1.6200509694337237e-14
   15  0.050157465926273806
   16  -0.17888792685348162
   17  0.11810145308145718
   18  0.0029295448277618457
   19  -0.002929544827707884
   20  -0.002929544827748407
   21  -0.17888792685346883
   22  0.11810145308135789
   23  0.0029295448277692564
   24  0.002929544827708406
   25  0.0029295448278011662
   26  -0.17888792685349547
   27  0.11810145308144479
   28  -0.0029295448277513003
   29  0.0029295448277247096
   30  -0.002929544827795495
   31  -0.17888792685350074
   32  0.11810145308149196
   33  -0.002929544827748536
   34  -0.002929544827727157
   35  0.0029295448277827235
 Sym= A
 Ene= 1.6899367762026594
 Spin= Alpha
 Occup= 0.0010664555424043053
   1  1.6261594960296168e-18
   2  -8.732231994065823e-17
   3  1.2684548225293749e-15
   4  7.945578471448167e-16
   5  3.2226827413889145e-17
   6  -9.378122123012398e-17
   7  -4.458329807145769e-15
   8  2.748411849668999e-15
   9  4.0105357255024346e-16
   10  1.0487811195443214e-16
   11  3.320514563896449e-15
   12  5.4236294235369354e-15
   13  4.859173338967996e-16
   14  -3.3535796465919975e-15
   15  -9.58933336922452e-16
   16  2.725651685179874e-15
   17  1.6723864014997114e-16
   18  0.33644560170789567
   19  0.2059045444591108
   20  0.13054105724877244
   21  -1.1731270207878493e-15
   22  7.226696684128223e-16
   23  -0.33644560170788756
   24  0.45556346861028474
   25  -0.11911786690240023
   26  -3.2655187225241207e-16
   27  -1.3781876611528076e-15
   28  -0.3250224113615115
   29  -0.4555634686102933
   30  -0.13054105724877682
   31  -1.1583267915089142e-15
   32  1.2148410765381025e-15
   33  0.3250224113615188
   34  -0.20590454445912093
   35  0.11911786690239881
 Sym= A
 Ene= 1.6899367762026631
 Spin= Alpha
 Occup= 1.0803304698006437
   1  1.86146782713005e-15
   2  9.97113784285027e-15
   3  -1.565505298290034e-14
   4  -5.000361878172714e-16
   5  -2.6062524539139153e-15
   6  1.4816717203239593e-15
   7  -2.5392240502024686e-15
   8  -6.245004513623564e-16
   9  -1.3430554265848703e-15
   10  -4.68098094726411e-15
   11  -9.080134800897328e-16
   12  -1.2664352162132955e-15
   13  -2.5488799995220814e-15
   14  -1.9351568741585125e-15
   15  4.706087701156361e-16
   16  1.892474218680664e-15
   17  -2.2201610467098213e-15
   18  0.3682923237128018
   19  0.1103324606599771
   20  0.2579598630528208
   21  4.292069791457788e-15
   22  5.70198399071964e-16
   23  -0.3682923237127932
   24  -0.05845224966491289
   25  0.4267445733777045
   26  3.6785357537945306e-15
   27  -2.8275621388199384e-15
   28  0.3164121127177385
   29  0.05845224966491595
   30  -0.2579598630528202
   31  5.608039866926634e-16
   32  -4.076228899238064e-16
   33  -0.31641211271773073
   34  -0.11033246065997569
   35  -0.426744573377713
 Sym= A
 Ene= 1.6899367762026645
 Spin= Alpha
 Occup= 0.09329652953759117
   1  0.0
   2  -1.1793271399821852e-16
   3  2.9799248865689663e-15
   4  1.3877787807791743e-17
   5  1.1527552945928826e-15
   6  -3.6949610038304936e-16
   7  -2.0650105825056126e-15
   8  -2.2390895116445604e-15
   9  6.754900756873722e-16
   10  6.733615756131391e-16
   11  1.4288993097987923e-15
   12  7.876096734604704e-17
   13  6.011159164375808e-16
   14  -2.8624578455817182e-15
   15  -6.024941911229193e-16
   16  4.329857471827769e-15
   17  -1.677946596470878e-15
   18  0.034133874459896026
   19  0.4420747297638663
   20  -0.4079408553039812
   21  -1.62126613091442e-15
   22  6.149631084368055e-16
   23  -0.034133874459888865
   24  -0.1975987362734701
   25  0.23173261073335666
   26  -2.0569622295457157e-15
   27  7.099662312065226e-16
   28  -0.21034211903050934
   29  0.19759873627346858
   30  0.4079408553039764
   31  -2.50790284816605e-15
   32  5.123569349783327e-16
   33  0.21034211903051553
   34  -0.44207472976387174
   35  -0.23173261073335985
 Sym= A
 Ene= 1.8985533119365756
 Spin= Alpha
 Occup= 0.0010664555424041947
   1  -3.819518016729923e-15
   2  -2.0793879118739988e-14
   3  2.738914156971736e-14
   4  -0.009672514316102214
   5  0.023671811899330677
   6  -0.013582639865056274
   7  0.09228844752585147
   8  -0.2258600710134409
   9  0.12959616346722994
   10  7.493805080976827e-15
   11  0.2208612427718461
   12  -0.3849167648329183
   13  1.2267875539204685e-14
   14  0.15728043692587673
   15  9.94097483665108e-15
   16  -0.11567290533719904
   17  0.05248823364069073
   18  -0.14359607256662024
   19  0.2894053484210717
   20  -0.09861730784608604
   21  0.0024388611345104953
   22  -0.0011066680885467896
   23  -0.09984028833018793
   24  0.24745656927434762
   25  -0.14056608699280568
   26  0.27468194813677627
   27  -0.12464085888267086
   28  -0.20250269615054964
   29  0.34831197200498065
   30  -0.2432284948131641
   31  -0.16144790393411215
   32  0.07325929333053917
   33  -0.04093366474626193
   34  0.3063631928582673
   35  -0.201279715666443
 Sym= A
 Ene= 1.8985533119365756
 Spin= Alpha
 Occup= 0.0010664555424041472
   1  -6.019351951649924e-17
   2  -2.9292222328566904e-15
   3  -7.1624161926559e-15
   4  -0.008711023732974063
   5  -0.01633447942215843
   6  -0.022264392312105086
   7  0.08311456880850845
   8  0.15585231489435886
   9  0.2124314458930281
   10  1.0735421560917347e-15
   11  0.3620313432783022
   12  0.26560767722988454
   13  1.1625736011093862e-16
   14  0.1416460678184711
   15  4.4315177591659195e-15
   16  0.1749453033150933
   17  -0.07938393116326656
   18  -0.025919029693904465
   19  -0.23494167826284068
   20  -0.29670451309244655
   21  -0.27692338411130896
   22  0.12565794248386555
   23  -0.1933186832666691
   24  -0.27272056374952863
   25  -0.33448339857913995
   26  0.08569914763368135
   27  -0.038887212789289964
   28  -0.1224775919677975
   29  -0.1383831159889349
   30  -0.2636423072802685
   31  0.01627893316253865
   32  -0.007386798531303924
   33  -0.09676012099277452
   34  -0.17616200147562408
   35  -0.2258634217935834
 Sym= A
 Ene= 1.898553311936594
 Spin= Alpha
 Occup= 0.0010664555424039941
   1  7.444404013057726e-17
   2  7.545670004165662e-15
   3  -4.767371320924581e-15
   4  0.02586427748508536
   5  0.0033511820162978614
   6  -0.012578117775148646
   7  -0.24677906255475618
   8  -0.03197466300410349
   9  0.12001170784856517
   10  -8.059483443084163e-15
   11  0.20452715754432974
   12  -0.054492074605929926
   13  -1.1694312419684116e-14
   14  -0.42056746887953594
   15  -5.592285293287684e-15
   16  0.2054026420500256
   17  -0.09320438381752613
   18  0.3454822634593596
   19  -0.04118949674583351
   20  -0.20710065433408137
   21  0.09738489015754227
   22  -0.04418978543645109
   23  0.30546591634425546
   24  0.07098142681691222
   25  -0.09492973077135351
   26  -0.05815332324924926
   27  0.0263879013740592
   28  0.29093215710774684
   29  0.0133606096057996
   30  -0.10946349000784934
   31  -0.24463420895830554
   32  0.11100626787991259
   33  0.36001602269587335
   34  0.1255315331685446
   35  -0.22163441357059188
 Sym= A
 Ene= 2.215920873961056
 Spin= Alpha
 Occup= 1.0803304698006193
   1  -1.652319652523898e-16
   2  1.7075317197791358e-15
   3  8.860322932829466e-15
   4  0.2222190693861627
   5  0.01199935523018524
   6  0.011508830887550487
   7  0.12825482481348213
   8  0.006925486670315801
   9  0.0066423781422846875
   10  -8.055711022965681e-15
   11  -0.026287453525293703
   12  -0.02740786584053539
   13  8.014656952017054e-16
   14  -0.50757314239859
   15  -4.197732479555339e-15
   16  0.03520561420186337
   17  -0.056704220881924706
   18  -0.2757461901843021
   19  -0.22408807143083653
   20  -0.22304126705149294
   21  0.04353550653018453
   22  -0.07012083255640994
   23  -0.22878425127264415
   24  0.21983551796288361
   25  0.22088232234223518
   26  -0.03928365415092412
   27  0.06327255048729011
   28  -0.25275517716532564
   29  -0.24707908444982826
   30  0.19691139644955274
   31  -0.03945746658113006
   32  0.06355250295104536
   33  -0.25177526429163544
   34  0.19684450494389658
   35  -0.24701219294417054
 Sym= A
 Ene= 2.215920873961071
 Spin= Alpha
 Occup= 0.09329652953755022
   1  2.263240510327421e-15
   2  1.9330380050851128e-14
   3  -3.727135892125192e-15
   4  0.016561499487994916
   5  -0.17336771135315474
   6  -0.13902196196313454
   7  0.009558550584094664
   8  -0.10006002414342774
   9  -0.08023720658204056
   10  -1.4052858146128082e-14
   11  0.3175416686378695
   12  0.3959911914177107
   13  -1.216848574147744e-14
   14  -0.037828312219871416
   15  -5.865906162333834e-15
   16  0.05828029089554053
   17  -0.09386964445658598
   18  0.29322723018376856
   19  0.041405355842154386
   20  -0.031890254074508156
   21  -0.05241188799793975
   22  0.08441765159482408
   23  -0.3308287765809116
   24  0.0744900065823483
   25  0.001194396665677876
   26  -0.00901923908040628
   27  0.014526913862944791
   28  0.015505212313263236
   29  0.3191273737126563
   30  0.34752838555986326
   31  0.0031508361828118682
   32  -0.00507492100118878
   33  -0.05310675871042179
   34  0.35221202445283967
   35  0.3144437348196726
 Sym= A
 Ene= 2.215920873961072
 Spin= Alpha
 Occup= 0.0010664555424042255
   1  -3.872530670850689e-17
   2  -4.904317665825424e-15
   3  2.4216813993071506e-15
   4  0.0014678041585436752
   5  0.13948980123087382
   6  -0.17377627403279022
   7  0.000847150362633975
   8  0.08050722230791528
   9  -0.10029582809603363
   10  5.277200180868202e-15
   11  0.39692439415205377
   12  -0.3186102657115759
   13  1.0157283007995122e-14
   14  -0.0033526284275933226
   15  1.661443119280933e-15
   16  0.006334586510969641
   17  -0.010202855449543285
   18  0.032580512180600235