[Molden Format]
[Atoms] (AU)
O    1    8           0.0000000000         0.0000000000        -0.1432258166
H    2    1           1.6380368404         0.0000000000         1.1365488225
H    3    1          -1.6380368404         0.0000000000         1.1365488225
[GTO]
  1 0
 s    3  1.00
      130.7093200000         0.1543289700
       23.8088610000         0.5353281400
        6.4436083000         0.4446345400
 s    3  1.00
        5.0331513000        -0.0999672300
        1.1695961000         0.3995128300
        0.3803890000         0.7001154700
 p    3  1.00
        5.0331513000         0.1559162700
        1.1695961000         0.6076837200
        0.3803890000         0.3919573900

  2 0
 s    3  1.00
        3.4252509100         0.1543289700
        0.6239137300         0.5353281400
        0.1688554000         0.4446345400

  3 0
 s    3  1.00
        3.4252509100         0.1543289700
        0.6239137300         0.5353281400
        0.1688554000         0.4446345400

[5D7F]
[9G]

[MO]
 Sym= A
 Ene=        -2.0263131188e+01
 Spin= Alpha
 Occup=         2.0000000000e+00
  1         9.9443500484e-01
  2         2.4095305191e-02
  3        -3.4189213298e-16
  4        -2.7457342150e-16
  5         3.1614982462e-03
  6        -4.5933934081e-03
  7        -4.5933934081e-03
 Sym= A
 Ene=        -1.2097236926e+00
 Spin= Alpha
 Occup=         2.0000000000e+00
  1         2.3915870786e-01
  2        -8.8574117827e-01
  3         2.1715308632e-13
  4        -1.4374336887e-15
  5        -8.5882975990e-02
  6        -1.4403637842e-01
  7        -1.4403637842e-01
 Sym= A
 Ene=        -5.4797110337e-01
 Spin= Alpha
 Occup=         2.0000000000e+00
  1        -1.1006654917e-14
  2        -2.9411185587e-14
  3         6.0725922119e-01
  4         1.4872414180e-14
  5        -4.3096390109e-13
  6         4.5301815232e-01
  7        -4.5301815232e-01
 Sym= A
 Ene=        -4.3653437642e-01
 Spin= Alpha
 Occup=         2.0000000000e+00
  1         9.3682913635e-02
  2        -4.7959559007e-01
  3        -2.9207185712e-13
  4        -3.4452023094e-14
  5         7.4740719815e-01
  6         3.2949786557e-01
  7         3.2949786557e-01
 Sym= A
 Ene=        -3.8759806028e-01
 Spin= Alpha
 Occup=         2.0000000000e+00
  1         4.0174620638e-15
  2        -1.9163558780e-14
  3        -5.5149261631e-15
  4         1.0000000000e+00
  5         2.4163699825e-14
  6         3.2846542916e-15
  7         2.2020792860e-14
 Sym= A
 Ene=         4.7761482807e-01
 Spin= Alpha
 Occup=         0.0000000000e+00
  1         1.1163681922e-01
  2        -6.6956481667e-01
  3        -5.2136024675e-12
  4        -2.0730470352e-15
  5        -7.3851463133e-01
  6         7.0983775254e-01
  7         7.0983775253e-01
 Sym= A
 Ene=         5.8814714969e-01
 Spin= Alpha
 Occup=         0.0000000000e+00
  1         6.1386864582e-13
  2        -3.7210959748e-12
  3         9.1925119386e-01
  4        -3.6127154769e-15
  5        -3.6455918073e-12
  6        -7.3244804283e-01
  7         7.3244804283e-01
